 Gaussian 16, Revision B.01,
 Gaussian 16:  ES64L-G16RevB.01 20-Dec-2017

 ----------------------------------------------------------
 #p cam-b3lyp/aug-cc-pVDZ POP=CHELPG density=current NoSymm
 ----------------------------------------------------------

 -------------------------
 DAST UAEnvolvida passo 15
 -------------------------
 Symbolic Z-matrix:
 Charge =  0 Multiplicity = 1

                          Input orientation:
 ---------------------------------------------------------------------
 Center     Atomic      Atomic             Coordinates (Angstroms)
 Number     Number       Type             X           Y           Z
 ---------------------------------------------------------------------
      1         17           0        0.529511   -1.626652    1.247344
      2         17           0        0.362927   -1.511555    4.375374
      3          7           0        3.703161    2.470259    1.679277
      4          7           0        3.582138    2.531106    3.906529
      5          6           0        4.112504    3.089530    2.782505
      6          6           0        5.072999    4.218889    2.804341
      7          6           0        2.860414    1.456338    2.124311
      8          6           0        2.790648    1.491595    3.517643
      9          6           0        2.019660    0.586857    4.234066
     10          6           0        1.332677   -0.367923    3.533240
     11          6           0        1.403867   -0.417396    2.127431
     12          6           0        2.171295    0.490754    1.403730
     13          1           0        2.221128    0.451516    0.476228
     14          1           0        1.970539    0.627801    5.162607
     15          1           0        3.801546    2.769374    4.720692
     16          1           0        5.682386    4.106863    3.538439
     17          1           0        4.594603    5.044583    2.908321
     18          1           0        5.565634    4.235948    1.980819
 ---------------------------------------------------------------------

 SCF Done:  E(RCAM-B3LYP) =  -1338.13869552     A.U. after   16 cycles

 Alpha  occ. eigenvalues -- -101.62776-101.62288 -14.46638 -14.40015 -10.34827
 Alpha  occ. eigenvalues --  -10.33240 -10.33029 -10.31287 -10.29476 -10.27361
 Alpha  occ. eigenvalues --  -10.26661 -10.24720  -9.54544  -9.54038  -7.30914
 Alpha  occ. eigenvalues --   -7.30409  -7.29927  -7.29881  -7.29424  -7.29378
 Alpha  occ. eigenvalues --   -1.13462  -1.00824  -0.98819  -0.94637  -0.93079
 Alpha  occ. eigenvalues --   -0.88139  -0.84829  -0.80006  -0.74918  -0.71095
 Alpha  occ. eigenvalues --   -0.69188  -0.65003  -0.59483  -0.57671  -0.56713
 Alpha  occ. eigenvalues --   -0.55763  -0.53516  -0.52046  -0.51645  -0.49524
 Alpha  occ. eigenvalues --   -0.47807  -0.47056  -0.46517  -0.41783  -0.39463
 Alpha  occ. eigenvalues --   -0.38815  -0.37620  -0.36888  -0.35330  -0.29664
 Alpha  occ. eigenvalues --   -0.28575
 Alpha virt. eigenvalues --   -0.00241  -0.00034   0.01770   0.02707   0.02916
 Alpha virt. eigenvalues --    0.03771   0.03900   0.04199   0.05572   0.05966
 Alpha virt. eigenvalues --    0.07141   0.07206   0.07932   0.08164   0.09207

 Mulliken charges:
               1
     1  Cl  -0.178113
     2  Cl  -0.162727
     3  N   -0.446862
     4  N    0.280194
     5  C   -0.961027
     6  C    2.447638
     7  C   -1.878973
     8  C   -1.431042
     9  C    4.208739
    10  C   -0.786929
    11  C   -0.557689
    12  C    3.788922
    13  H   -1.175731
    14  H   -1.169465
    15  H   -0.521850
    16  H   -0.513827
    17  H   -0.404234
    18  H   -0.537022
 Sum of Mulliken charges =  -0.00000

 Dipole moment (field-independent basis, Debye):
    X=              2.7814    Y=              3.6252    Z=              3.3717  Tot=              5.6787
 Quadrupole moment (field-independent basis, Debye-Ang):
   XX=            -68.5758   YY=            -73.5266   ZZ=            -61.4118
   XY=             14.7606   XZ=             21.1909   YZ=             20.1020

 ESP charges:
               1
     1  Cl  -0.122653
     2  Cl  -0.108213
     3  N   -0.692073
     4  N   -0.518559
     5  C    0.519349
     6  C   -0.094444
     7  C    0.399280
     8  C    0.125796
     9  C   -0.215631
    10  C    0.034945
    11  C    0.110077
    12  C   -0.290326
    13  H    0.190237
    14  H    0.163761
    15  H    0.364197
    16  H    0.025465
    17  H    0.040002
    18  H    0.068788
 Sum of ESP charges =   0.00000

 Normal termination of Gaussian 16 at Wed Nov 16 10:45:03 2022.
